% Model:              Acoustic_Metamaterial 22-10-2025.mph
% Version:            COMSOL 6.3.0.290
% Date:               Jan 14 2026, 17:17
% Dimension:          1
% Nodes:              180
% Expressions:        1
% Description:        Global
% k_x * a_x (rad)         Frequency (Hz)
0                         -3.9301772112518935E-9
0.16534698176788387       18.527232357466048
0.33069396353576774       36.927901796060766
0.49604094530365167       55.074866895374534
0.6613879270715355        72.84002855904967
0.8267349088394192        90.0943537698337
0.9920818906073033        106.70850597561744
1.157428872375187         122.55426474047653
1.322775854143071         137.50685139839487
1.4881228359109548        151.44814326562133
1.6534698176788385        164.2705481224599
1.8188167994467226        175.88105058132567
1.9841637812146067        186.2047100930892
2.1495107629824903        195.18680112360445
2.314857744750374         202.7929375552362
2.480204726518258         209.00692487994954
2.645551708286142         213.8266201741583
2.810898690054026         217.25855886417958
2.9762456718219097        219.31236641506067
3.141592653589793         219.99596414321073
0                         3.929362989253439E-9
0.16534698176788387       407.50981752420824
0.33069396353576774       407.9911390212242
0.49604094530365167       408.79652317543736
0.6613879270715355        409.929841030953
0.8267349088394192        411.39462725409425
0.9920818906073033        413.1920272203167
1.157428872375187         415.31798312379965
1.322775854143071         417.7596576336196
1.4881228359109548        420.4912531952521
1.6534698176788385        423.4696342415809
1.8188167994467226        426.6304646693098
1.9841637812146067        429.88584427564706
2.1495107629824903        433.1245305220295
2.314857744750374         436.21563885156144
2.480204726518258         439.0161841250505
2.645551708286142         441.3820505999718
2.810898690054026         443.1811613740825
2.9762456718219097        444.3069884986145
3.141592653589793         444.6902730717568
0                         407.34972025120965
0.16534698176788387       715.9840665399412
0.33069396353576774       715.9840665419839
0.49604094530365167       715.9840665454212
0.6613879270715355        715.9840665501498
0.8267349088394192        715.9840665563961
0.9920818906073033        715.9840665635543
1.157428872375187         715.9840665728539
1.322775854143071         715.9840665830146
1.4881228359109548        715.9840665945696
1.6534698176788385        715.9840666071755
1.8188167994467226        715.9840666205989
1.9841637812146067        715.9840666346274
2.1495107629824903        715.9840666487155
2.314857744750374         715.9840666623512
2.480204726518258         715.9840666748753
2.645551708286142         715.9840666856144
2.810898690054026         715.984066693889
2.9762456718219097        715.984066699133
3.141592653589793         715.9840667009344
0                         715.9840665392643
0.16534698176788387       1103.8770334275312
0.33069396353576774       1101.8541310291869
0.49604094530365167       1098.5445183167833
0.6613879270715355        1094.038290496153
0.8267349088394192        1088.456506904219
0.9920818906073033        1081.9469592214923
1.157428872375187         1074.6796834318677
1.322775854143071         1066.8425843019613
1.4881228359109548        1058.6373766692352
1.6534698176788385        1050.2758571622671
1.8188167994467226        1041.9763407082785
1.9841637812146067        1033.95995742694
2.1495107629824903        1026.446431273503
2.314857744750374         1019.6489758089325
2.480204726518258         1013.7680681206705
2.645551708286142         1008.9841120144304
2.810898690054026         1005.4493579529766
2.9762456718219097        1003.2798391306042
3.141592653589793         1002.5483847876395
0                         1104.5576052135189
0.16534698176788387       1950.8428697669137
0.33069396353576774       1953.6335111032834
0.49604094530365167       1958.226233377567
0.6613879270715355        1964.5349501725527
0.8267349088394192        1972.4412389082283
0.9920818906073033        1981.794658076458
1.157428872375187         1992.4105825357353
1.322775854143071         2004.063465525107
1.4881228359109548        2016.4727841507843
1.6534698176788385        2029.2789826170656
1.8188167994467226        2042.0109140899435
1.9841637812146067        2054.06392648989
2.1495107629824903        2064.747184165108
2.314857744750374         2073.472026845131
2.480204726518258         2080.005494557126
2.645551708286142         2084.522905254372
2.810898690054026         2087.3984074583827
2.9762456718219097        2088.9783605662055
3.141592653589793         2089.4809146903103
0                         1949.9067742007003
0.16534698176788387       2108.886397478945
0.33069396353576774       2108.886396706133
0.49604094530365167       2108.886397399175
0.6613879270715355        2108.886396358441
0.8267349088394192        2108.886399561407
0.9920818906073033        2108.8863993084133
1.157428872375187         2108.886398405159
1.322775854143071         2108.88639839851
1.4881228359109548        2108.8863983818355
1.6534698176788385        2108.8863983792444
1.8188167994467226        2108.886398381681
1.9841637812146067        2108.8863983691754
2.1495107629824903        2108.886404370796
2.314857744750374         2108.886403224993
2.480204726518258         2108.886402941742
2.645551708286142         2108.8863984681116
2.810898690054026         2108.886399046316
2.9762456718219097        2108.8863985122666
3.141592653589793         2108.8863984527934
0                         2108.8863976326643
0.16534698176788387       2119.132755105326
0.33069396353576774       2119.274142378116
0.49604094530365167       2119.5197812248807
0.6613879270715355        2119.886171001416
0.8267349088394192        2120.399723870171
0.9920818906073033        2121.100289763666
1.157428872375187         2122.048683628574
1.322775854143071         2123.3368555420902
1.4881228359109548        2125.1018304749527
1.6534698176788385        2125.115930070272
1.8188167994467226        2125.1159435310433
1.9841637812146067        2125.115947934598
2.1495107629824903        2125.1158014982966
2.314857744750374         2125.115840137813
2.480204726518258         2125.115848679782
2.645551708286142         2125.115952997008
2.810898690054026         2125.1159534646436
2.9762456718219097        2125.1159531615986
3.141592653589793         2125.115953189582
0                         2119.086608422551
0.16534698176788387       2125.1159166242264
0.33069396353576774       2125.1159066218706
0.49604094530365167       2125.11592001177
0.6613879270715355        2125.115907635172
0.8267349088394192        2125.115931345511
0.9920818906073033        2125.1159445192607
1.157428872375187         2125.115972425122
1.322775854143071         2125.1159877017512
1.4881228359109548        2125.120195811193
1.6534698176788385        2127.572984097605
1.8188167994467226        2131.063521378254
1.9841637812146067        2136.034514965842
2.1495107629824903        2143.0233379255396
2.314857744750374         2152.452850087795
2.480204726518258         2164.3606829198466
2.645551708286142         2178.3021488719755
2.810898690054026         2193.4087614085397
2.9762456718219097        2207.920180961831
3.141592653589793         2215.6509960094904
0                         2125.115923604598
0.16534698176788387       NaN
0.33069396353576774       NaN
0.49604094530365167       NaN
0.6613879270715355        NaN
0.8267349088394192        NaN
0.9920818906073033        NaN
1.157428872375187         NaN
1.322775854143071         NaN
1.4881228359109548        NaN
1.6534698176788385        NaN
1.8188167994467226        NaN
1.9841637812146067        NaN
2.1495107629824903        NaN
2.314857744750374         NaN
2.480204726518258         NaN
2.645551708286142         NaN
2.810898690054026         NaN
2.9762456718219097        NaN
3.141592653589793         NaN
