% Model:                            Acoustic_Metamaterial 22-10-2025.mph
% Version:                        COMSOL 6.3.0.290
% Date:                              Jan 13 2026, 14:18
% Dimension:                    1
% Nodes:                            180
% Expressions:                1
% Description:                Global
% k_x * a_x (rad)                  Frequency (Hz)
0                                                  7.656219920580111E-10
0.16534698176788387              18.510576337544762
0.33069396353576774              36.90971233712463
0.49604094530365167              55.08531698247336
0.6613879270715355                72.92410109227163
0.8267349088394192                90.3112409147
0.9920818906073033                107.1303672059311
1.157428872375187                  123.26399658669487
1.322775854143071                  138.5945107389481
1.4881228359109548                153.0057520239002
1.6534698176788385                166.38522963905672
1.8188167994467226                178.62681390619764
1.9841637812146067                189.6336497809245
2.1495107629824903                199.32088096003636
2.314857744750374                  207.6177021584367
2.480204726518258                  214.4683103322203
2.645551708286142                  219.83153333466373
2.810898690054026                  223.67923971364866
2.9762456718219097                225.9939750744181
3.141592653589793                  226.7665042908567
0                                                  -7.65911493213017E-10
0.16534698176788387              425.74258076676057
0.33069396353576774              425.9922537504004
0.49604094530365167              426.40930236530335
0.6613879270715355                426.9947153800109
0.8267349088394192                427.749042268261
0.9920818906073033                428.6714924786456
1.157428872375187                  429.75870450380233
1.322775854143071                  431.0031732764701
1.4881228359109548                432.39137882339423
1.6534698176788385                433.90175312570136
1.8188167994467226                435.502754450375
1.9841637812146067                437.15146798914327
2.1495107629824903                438.793269903929
2.314857744750374                  440.363106856044
2.480204726518258                  441.7887841759902
2.645551708286142                  442.9962962712488
2.810898690054026                  443.91672828179446
2.9762456718219097                444.49374950068494
3.141592653589793                  444.6903865271724
0                                                  425.659460349639
0.16534698176788387              741.233545167106
0.33069396353576774              741.2335452519135
0.49604094530365167              741.2335453930036
0.6613879270715355                741.233545590452
0.8267349088394192                741.233545842769
0.9920818906073033                741.2335461488267
1.157428872375187                  741.2335465062218
1.322775854143071                  741.2335469115628
1.4881228359109548                741.2335473592918
1.6534698176788385                741.2335478414889
1.8188167994467226                741.2335483478189
1.9841637812146067                741.2335488648607
2.1495107629824903                741.2335493758794
2.314857744750374                  741.233549861618
2.480204726518258                  741.2335503007249
2.645551708286142                  741.2335506714593
2.810898690054026                  741.2335509534482
2.9762456718219097                741.2335511300356
3.141592653589793                  741.2335511902086
0                                                  741.2335451387682
0.16534698176788387              1157.0117972688497
0.33069396353576774              1155.0767443760963
0.49604094530365167              1151.9156621583757
0.6613879270715355                1147.6212946831934
0.8267349088394192                1142.3174429276244
0.9920818906073033                1136.1539259077422
1.157428872375187                  1129.3012302563502
1.322775854143071                  1121.9452846611648
1.4881228359109548                1114.2826149809946
1.6534698176788385                1106.515940519717
1.8188167994467226                1098.850105640726
1.9841637812146067                1091.4881310674873
2.1495107629824903                1084.6271295213592
2.314857744750374                  1078.4538654811954
2.480204726518258                  1073.1398466299843
2.645551708286142                  1068.8360032329463
2.810898690054026                  1065.6672143350859
2.9762456718219097                1063.7271308599454
3.141592653589793                  1063.073867133978
0                                                  1157.6633129934364
0.16534698176788387              1950.8551118410342
0.33069396353576774              1953.6464905350701
0.49604094530365167              1958.2350352118453
0.6613879270715355                1964.5268263304422
0.8267349088394192                1972.3929863590195
0.9920818906073033                1981.6704789410223
1.157428872375187                  1992.1607138267077
1.322775854143071                  2003.6243803895534
1.4881228359109548                2015.7709949846667
1.6534698176788385                2028.2428377742117
1.8188167994467226                2040.5976195103206
1.9841637812146067                2052.3062883750827
2.1495107629824903                2062.8001463858855
2.314857744750374                  2071.5954664864034
2.480204726518258                  2078.446748205718
2.645551708286142                  2083.396141465248
2.810898690054026                  2086.6677879231615
2.9762456718219097                2088.512702936158
3.141592653589793                  2089.1071470324146
0                                                  1949.9182214571972
0.16534698176788387              2112.2395534240904
0.33069396353576774              2112.239548885126
0.49604094530365167              2112.239549832463
0.6613879270715355                2112.2395507706633
0.8267349088394192                2112.2395507803603
0.9920818906073033                2112.239550813962
1.157428872375187                  2112.2395508759346
1.322775854143071                  2112.2395509163157
1.4881228359109548                2112.2395509218345
1.6534698176788385                2112.2395509130647
1.8188167994467226                2112.2395386179364
1.9841637812146067                2112.2395496475983
2.1495107629824903                2112.2395471821815
2.314857744750374                  2112.2395438025287
2.480204726518258                  2112.239550703691
2.645551708286142                  2112.239550873591
2.810898690054026                  2112.23955073374
2.9762456718219097                2112.23955068618
3.141592653589793                  2112.2395506435564
0                                                  2112.239551019068
0.16534698176788387              2128.5911361091203
0.33069396353576774              2128.7677848101084
0.49604094530365167              2129.0738778851614
0.6613879270715355                2129.528450586561
0.8267349088394192                2130.1610995119668
0.9920818906073033                2131.0164081502685
1.157428872375187                  2132.159870679407
1.322775854143071                  2133.687380646342
1.4881228359109548                2134.7868128742157
1.6534698176788385                2134.786841610832
1.8188167994467226                2134.7867663201114
1.9841637812146067                2134.786832273963
2.1495107629824903                2134.786825799303
2.314857744750374                  2134.786828848
2.480204726518258                  2134.7868513874632
2.645551708286142                  2134.786851681861
2.810898690054026                  2134.7868518688633
2.9762456718219097                2134.78685192121
3.141592653589793                  2134.786852177034
0                                                  2128.533290451255
0.16534698176788387              2134.786841856825
0.33069396353576774              2134.786850098689
0.49604094530365167              2134.7868570104188
0.6613879270715355                2134.7868590903236
0.8267349088394192                2134.7868600997363
0.9920818906073033                2134.7868619591804
1.157428872375187                  2134.786866439516
1.322775854143071                  2134.7868879189978
1.4881228359109548                2135.7391177099344
1.6534698176788385                2138.5168795966706
1.8188167994467226                2142.302234379675
1.9841637812146067                2147.4553236041097
2.1495107629824903                2154.3605819799627
2.314857744750374                  2163.287420449754
2.480204726518258                  2174.201111736322
2.645551708286142                  2186.629024820702
2.810898690054026                  2199.525095446982
2.9762456718219097                2210.7075848717955
3.141592653589793                  2215.652560633394
0                                                  2134.786852509559
0.16534698176788387              NaN
0.33069396353576774              NaN
0.49604094530365167              NaN
0.6613879270715355                NaN
0.8267349088394192                NaN
0.9920818906073033                NaN
1.157428872375187                  NaN
1.322775854143071                  NaN
1.4881228359109548                NaN
1.6534698176788385                NaN
1.8188167994467226                NaN
1.9841637812146067                NaN
2.1495107629824903                NaN
2.314857744750374                  NaN
2.480204726518258                  NaN
2.645551708286142                  NaN
2.810898690054026                  NaN
2.9762456718219097                NaN
3.141592653589793                  NaN
